HEADER
"PSFversion" "1.00"
"I0n" "SchmittTrigger"
"V0n GNDn" "analogLib_vdc_spectre"
"C0n" "analogLib_cap_spectre"
"V2n" "analogLib_vpulse_spectre"
